Title: * o:\vsd intern\lt spice\schematics\nand.asc
Date: Thu Feb  4 23:34:08  2021
Plotname: Transient Analysis
Flags: real
No. Variables: 25
No. Points: 5066
Variables:
	0	time	time
	1	v(a)	voltage
	2	v(b)	voltage
	3	v(m1#body)	voltage
	4	v(m1#dbody)	voltage
	5	v(m1#sbody)	voltage
	6	v(m2#body)	voltage
	7	v(m2#dbody)	voltage
	8	v(m2#sbody)	voltage
	9	v(m3#body)	voltage
	10	v(m3#dbody)	voltage
	11	v(m3#sbody)	voltage
	12	v(m4#body)	voltage
	13	v(m4#dbody)	voltage
	14	v(m4#sbody)	voltage
	15	v(n001)	voltage
	16	v(n002)	voltage
	17	v(n003)	voltage
	18	v(n004)	voltage
	19	v(n005)	voltage
	20	i(v1)	current
	21	i(v2)	current
	22	i(v3)	current
	23	v(vdd)	voltage
	24	v(y)	voltage
Values:
 0	0.000000000000000e+00
	0.000000000000000e+00
	1.800000000000000e+00
	2.462387565157061e-01
	2.462387565545698e-01
	2.462387564768358e-01
	1.799995274765022e+00
	1.799995274765022e+00
	1.799995274765023e+00
	2.661106874812401e-10
	2.661106874880580e-10
	2.661106874744223e-10
	1.799999116996565e+00
	1.799999116996565e+00
	1.799999116996565e+00
	1.799995274765022e+00
	1.799999116996565e+00
	2.462387565157039e-01
	5.322253455905309e-10
	2.661106874812401e-10
	-1.790761772346007e-12
	0.000000000000000e+00
	0.000000000000000e+00
	1.800000000000000e+00
	1.799999997716233e+00

 1	1.000000000000000e-13
	1.800000000000000e-02
	1.800000000000000e+00
	2.590688748766034e-01
	2.588489246146211e-01
	2.578386573202494e-01
	1.802329464656279e+00
	1.802228661705875e+00
	1.804096180492949e+00
	5.005304947904087e-03
	4.936333339681884e-03
	4.295864206357436e-03
	1.803469877916482e+00
	1.803141627698022e+00
	1.805008771085053e+00
	1.802884768951701e+00
	1.803873425566519e+00
	2.585854856038246e-01
	5.387394881960587e-03
	4.745834164647802e-03
	2.811095695750627e-04
	-4.359721917353270e-04
	1.385774032271712e-04
	1.800000000000000e+00
	1.812912553129879e+00

 2	2.000000000000000e-13
	3.600000000000000e-02
	1.800000000000000e+00
	2.710609734129034e-01
	2.707801525573203e-01
	2.696637376399531e-01
	1.805002777094847e+00
	1.804842304481916e+00
	1.806842419709998e+00
	9.241740931969462e-03
	9.194296394658383e-03
	8.542456062633867e-03
	1.807087168025654e+00
	1.806690407288960e+00
	1.808687812508332e+00
	1.805562500428920e+00
	1.807488462607649e+00
	2.705016212033922e-01
	1.021722760166137e-02
	8.992831129753905e-03
	2.924606745280557e-04
	-4.564950043969111e-04
	1.295345463961338e-04
	1.800000000000000e+00
	1.824827844207437e+00

 3	4.000000000000000e-13
	7.200000000000001e-02
	1.800000000000000e+00
	2.942879061793933e-01
	2.939608205234462e-01
	2.927579493177573e-01
	1.810359743575430e+00
	1.810160378702033e+00
	1.812084484627030e+00
	1.667612097997800e-02
	1.665081012645407e-02
	1.612411366953230e-02
	1.814171562621764e+00
	1.813765509283528e+00
	1.815681386978181e+00
	1.810868202301498e+00
	1.814539486294491e+00
	2.936688920068656e-01
	1.877284097076263e-02
	1.648368159198813e-02
	3.042314275897604e-04
	-4.769454942095061e-04
	1.095481848892264e-04
	1.800000000000000e+00
	1.847748048135962e+00

 4	8.000000000000000e-13
	1.440000000000000e-01
	1.800000000000000e+00
	3.375192220981356e-01
	3.371479807461746e-01
	3.358531114193971e-01
	1.820750101342263e+00
	1.820550432411563e+00
	1.822246281917930e+00
	2.690848055581581e-02
	2.689044058470585e-02
	2.659307250387302e-02
	1.827325740805142e+00
	1.826978415813825e+00
	1.828663583398156e+00
	1.821182271890585e+00
	1.827655913339041e+00
	3.368401047545691e-01
	3.062549679596314e-02
	2.679733121479822e-02
	3.237678805244864e-04
	-5.045032797438374e-04
	8.023980011221538e-05
	1.800000000000000e+00
	1.889564909931503e+00

 5	1.600000000000000e-12
	2.880000000000000e-01
	1.800000000000000e+00
	4.147222745173311e-01
	4.142935608197663e-01
	4.129515735097565e-01
	1.841290732390421e+00
	1.841004812718136e+00
	1.842456562227330e+00
	3.719128774922256e-02
	3.719010178844055e-02
	3.707022162787150e-02
	1.850725794579419e+00
	1.850403525008954e+00
	1.851843632661383e+00
	1.841584035778629e+00
	1.850990984083252e+00
	4.139891362822846e-01
	4.261452124159172e-02
	3.715053705517820e-02
	3.475221113756681e-04
	-5.392313788085629e-04
	5.355428675192075e-05
	1.800000000000000e+00
	1.961494834841895e+00

 6	3.200000000000000e-12
	5.760000000000001e-01
	1.800000000000000e+00
	5.406285502210356e-01
	5.403738860005186e-01
	5.392028317787892e-01
	1.891748873346858e+00
	1.891173383621705e+00
	1.892397994854511e+00
	4.636538670717021e-02
	4.635960802578914e-02
	4.629302590686378e-02
	1.893423053572513e+00
	1.893118040136599e+00
	1.894365058038954e+00
	1.891773417274358e+00
	1.893635383916022e+00
	5.400684226667811e-01
	5.336062929709981e-02
	4.633934021327437e-02
	3.472075532537892e-04
	-5.702923381044743e-04
	5.261493759675770e-05
	1.800000000000000e+00
	2.083494688354134e+00

 7	6.400000000000000e-12
	1.152000000000000e+00
	1.800000000000000e+00
	7.465697312081965e-01
	7.459614665675601e-01
	7.463123456489397e-01
	2.020113758699198e+00
	2.019087061305006e+00
	2.018904245185220e+00
	1.283024852663897e-01
	1.283120815722723e-01
	1.275032149721741e-01
	1.937122532371546e+00
	1.937081362475555e+00
	1.937062930619134e+00
	2.019368355063141e+00
	1.937088941822078e+00
	7.462811811415654e-01
	1.531424230665593e-01
	1.280392606036120e-01
	1.713939876558918e-04
	-7.138333199966257e-04
	9.388990804804246e-05
	1.800000000000000e+00
	2.192856582823565e+00

 8	9.999999999999999e-12
	1.800000000000000e+00
	1.800000000000000e+00
	9.166270196120726e-01
	9.139921350376918e-01
	9.165676721012952e-01
	2.030743113215318e+00
	2.030652317636428e+00
	2.026943408317201e+00
	2.643857158937269e-01
	2.646257894881928e-01
	2.638364211163179e-01
	1.790532171155292e+00
	1.791528961505943e+00
	1.787463900380436e+00
	2.029446279722982e+00
	1.789841677680557e+00
	9.157289422503532e-01
	3.495411129069662e-01
	2.642826421660792e-01
	5.534316675587972e-05
	-7.870149941750400e-04
	-8.242635029275024e-05
	1.800000000000000e+00
	1.767053470305030e+00

 9	1.064000000000000e-11
	1.800000000000000e+00
	1.800000000000000e+00
	8.515248635062692e-01
	8.485713055255167e-01
	8.524242911376804e-01
	1.960695514139454e+00
	1.961756293378226e+00
	1.956174100894652e+00
	2.510245099635562e-01
	2.508992815446896e-01
	2.513731945106833e-01
	1.720026197806647e+00
	1.721302480801759e+00
	1.715015092008334e+00
	1.959541969470778e+00
	1.718781256872246e+00
	8.508401533898220e-01
	3.276487293012013e-01
	2.510989953396430e-01
	-1.425791612458834e-04
	-4.317102224952558e-04
	-1.957404172251089e-04
	1.800000000000000e+00
	1.518148191991417e+00

 10	1.192000000000000e-11
	1.800000000000000e+00
	1.800000000000000e+00
	7.122576552727076e-01
	7.088990672265600e-01
	7.133698291364855e-01
	1.836782398473492e+00
	1.837766270847230e+00
	1.832954423986195e+00
	2.236507427661492e-01
	2.235569647071058e-01
	2.240671617539339e-01
	1.596359809549872e+00
	1.597478941867921e+00
	1.592180814558955e+00
	1.835834364435639e+00
	1.595339855325582e+00
	7.115088505452510e-01
	2.848497767848758e-01
	2.237582897423963e-01
	-1.264868146312177e-04
	-4.105597781302083e-04
	-1.728364607942578e-04
	1.800000000000000e+00
	1.027077393525005e+00

 11	1.448000000000000e-11
	1.800000000000000e+00
	1.800000000000000e+00
	3.798920811701337e-01
	3.797445136080942e-01
	3.816404652297892e-01
	1.690018834621340e+00
	1.690365418896824e+00
	1.688601938541300e+00
	1.506837678803309e-01
	1.506234900480209e-01
	1.512812105833891e-01
	1.453084449387059e+00
	1.453463651148611e+00
	1.451574082206703e+00
	1.689662064019821e+00
	1.452707394247458e+00
	3.804256866693390e-01
	1.827199246708549e-01
	1.508628228372469e-01
	-4.706536612057790e-05
	-3.477461392385731e-04
	-1.146028946350285e-04
	1.800000000000000e+00
	3.446317875707796e-01

 12	1.960000000000000e-11
	1.800000000000000e+00
	1.800000000000000e+00
	7.055352298766815e-02
	7.055408807473253e-02
	6.970795090706801e-02
	1.622550729071133e+00
	1.622530951491835e+00
	1.622696375383680e+00
	4.780619853623991e-03
	4.839826063419508e-03
	5.158224486211813e-03
	1.388581199928130e+00
	1.388554218133109e+00
	1.388725256632445e+00
	1.622592685315549e+00
	1.388620224897895e+00
	7.027185398982289e-02
	5.523340975820888e-03
	4.926223467751770e-03
	3.704263611317068e-06
	1.136777411963740e-05
	-3.470222372950124e-05
	1.800000000000000e+00
	-1.426223513521023e-02

 13	2.798262018387691e-11
	1.800000000000000e+00
	1.800000000000000e+00
	7.403048607672254e-02
	7.409876504995866e-02
	7.481946151772703e-02
	1.626767787909886e+00
	1.626774864596543e+00
	1.626671528818115e+00
	-5.883055312646311e-04
	-6.695890167637348e-04
	-9.467394005351113e-04
	1.392576395723591e+00
	1.392589880708698e+00
	1.392485285907749e+00
	1.626738060441515e+00
	1.392550520780012e+00
	7.431623754813607e-02
	-6.690155888664677e-03
	-7.348779828544923e-04
	-1.999389306836550e-06
	-6.378953432972681e-06
	3.247334193822945e-05
	1.800000000000000e+00
	8.991052462971418e-03

 14	3.797348838356612e-11
	1.800000000000000e+00
	1.800000000000000e+00
	7.255447231566353e-02
	7.244826543457827e-02
	7.181355960323478e-02
	1.623925954112805e+00
	1.623926015041729e+00
	1.623994342426409e+00
	5.723500206584804e-03
	5.823003527785008e-03
	6.062875426665108e-03
	1.389886626833602e+00
	1.389880741548699e+00
	1.389947868882926e+00
	1.623948770526981e+00
	1.389905079088409e+00
	7.227209911782552e-02
	6.585258387973766e-03
	5.869793053678306e-03
	1.036963427893275e-06
	4.705688621157523e-06
	-2.980349393054090e-05
	1.800000000000000e+00
	-6.639817703913253e-03

 15	4.797348838356612e-11
	1.800000000000000e+00
	1.800000000000000e+00
	7.108730587947908e-02
	7.123167666227821e-02
	7.179329203985110e-02
	1.626113021722336e+00
	1.626107512351140e+00
	1.626066027190024e+00
	-4.888127376942190e-04
	-6.043775425485573e-04
	-8.091095803519410e-04
	1.391955769781630e+00
	1.391955861627622e+00
	1.391917442173014e+00
	1.626095520421166e+00
	1.391943024527422e+00
	7.137075819386945e-02
	-5.990066858600292e-03
	-6.340999535315724e-04
	-3.030327281826521e-07
	-4.252352843037393e-06
	2.707678058804636e-05
	1.800000000000000e+00
	5.385913039570880e-03

 16	5.797348838356612e-11
	1.800000000000000e+00
	1.800000000000000e+00
	7.188218764434899e-02
	7.170991418769464e-02
	7.121142830019302e-02
	1.624326711324236e+00
	1.624336629856508e+00
	1.624356275343211e+00
	4.697956411868109e-03
	4.829733205176400e-03
	5.002692143769111e-03
	1.390267922532245e+00
	1.390272528069995e+00
	1.390287589782442e+00
	1.624339872174651e+00
	1.390276013461560e+00
	7.160117671074555e-02
	5.402462702433140e-03
	4.843460586937873e-03
	-2.958590663534571e-07
	4.047633354152297e-06
	-2.460108216026358e-05
	1.800000000000000e+00
	-4.429014336351997e-03

 17	6.797348838356611e-11
	1.800000000000000e+00
	1.800000000000000e+00
	6.993897411288671e-02
	7.013936356649414e-02
	7.058312011298415e-02
	1.625827500795274e+00
	1.625813916784397e+00
	1.625812543367009e+00
	-3.293808198468477e-04
	-4.736232236588376e-04
	-6.183858555207054e-04
	1.391685765950499e+00
	1.391677264347304e+00
	1.391681725894644e+00
	1.625817986982226e+00
	1.391681585397482e+00
	7.022048593078833e-02
	-4.729528510926989e-03
	-4.737966330087969e-04
	7.927150447660481e-07
	-4.161019791719726e-06
	2.231093867590398e-05
	1.800000000000000e+00
	3.817888070410176e-03

 18	7.797348838356612e-11
	1.800000000000000e+00
	1.800000000000000e+00
	7.100995548062096e-02
	7.078872057992004e-02
	7.039262154059077e-02
	1.624540508995807e+00
	1.624557198585941e+00
	1.624542979094827e+00
	3.632837624788648e-03
	3.789720342087656e-03
	3.909722143592479e-03
	1.390471873405579e+00
	1.390483683802983e+00
	1.390462561503790e+00
	1.624546895558858e+00
	1.390472706237451e+00
	7.073043253371059e-02
	4.181697946366852e-03
	3.777426703489594e-03
	-1.218636444038895e-06
	4.214156773685177e-06
	-2.034639549928672e-05
	1.800000000000000e+00
	-3.253794001720052e-03

 19	8.797348838356612e-11
	1.800000000000000e+00
	1.800000000000000e+00
	6.927563009841359e-02
	6.951787616795131e-02
	6.987243152899741e-02
	1.625652132384374e+00
	1.625632797020848e+00
	1.625660412022621e+00
	-1.941737589915707e-04
	-3.604385776887978e-04
	-4.587796729851306e-04
	1.391520340939519e+00
	1.391505720972756e+00
	1.391541137842323e+00
	1.625648447142614e+00
	1.391522399918199e+00
	6.955531259845410e-02
	-3.629731370437201e-03
	-3.377973365551663e-04
	1.580334423227072e-06
	-4.390465321894084e-06
	1.856761802915627e-05
	1.800000000000000e+00
	2.856517178952959e-03

 20	9.797348838356613e-11
	1.800000000000000e+00
	1.800000000000000e+00
	7.027327242352961e-02
	7.001542824736054e-02
	6.969714980745148e-02
	1.624685017193427e+00
	1.624706618694153e+00
	1.624667421329137e+00
	2.767264707873023e-03
	2.943057137751257e-03
	3.022515030472963e-03
	1.390610080772650e+00
	1.390627114815983e+00
	1.390579337836460e+00
	1.624686352405573e+00
	1.390605511141698e+00
	6.999528349278053e-02
	3.192482756609832e-03
	2.910945625365747e-03
	-1.895068898633028e-06
	4.471816936820199e-06
	-1.706243012670339e-05
	1.800000000000000e+00
	-2.460735611234263e-03

 21	1.079734883835661e-10
	1.800000000000000e+00
	1.800000000000000e+00
	6.881009986845822e-02
	6.908367243122610e-02
	6.937026164503271e-02
	1.625527082112043e+00
	1.625503542776046e+00
	1.625552754716610e+00
	-9.002672228156225e-05
	-2.727917288843741e-04
	-3.357948000304332e-04
	1.391402687680539e+00
	1.391383598610054e+00
	1.391442044657281e+00
	1.625527793201566e+00
	1.391409443649291e+00
	6.908801131490566e-02
	-2.766342971660005e-03
	-2.328710837321232e-04
	2.163014501077190e-06
	-4.623833893108089e-06
	1.570703643492680e-05
	1.800000000000000e+00
	2.171499576205875e-03

 22	1.179734883835661e-10
	1.800000000000000e+00
	1.800000000000000e+00
	6.969669977991640e-02
	6.941148967165760e-02
	6.915260921379231e-02
	1.624791376659710e+00
	1.624816574516696e+00
	1.624758682255995e+00
	2.098165587179193e-03
	2.288016958765969e-03
	2.336706629730856e-03
	1.390712087147805e+00
	1.390732942651130e+00
	1.390665248489348e+00
	1.624788877810801e+00
	1.390703426096094e+00
	6.942026622178876e-02
	2.429230926522871e-03
	2.240963058558673e-03
	-2.397285111502666e-06
	4.693921120748473e-06
	-1.456455979940356e-05
	1.800000000000000e+00
	-1.877483376765701e-03

 23	1.279734883835661e-10
	1.800000000000000e+00
	1.800000000000000e+00
	6.846467072273542e-02
	6.876162187756382e-02
	6.899626674133409e-02
	1.625433599756060e+00
	1.625406988567703e+00
	1.625472389605743e+00
	-1.060195514362853e-05
	-2.055824321533634e-04
	-2.418176917122374e-04
	1.391315004002790e+00
	1.391292652452597e+00
	1.391368328727567e+00
	1.625437659309835e+00
	1.391325328394318e+00
	6.874085311387777e-02
	-2.104657822777181e-03
	-1.526673596697431e-04
	2.595759444524284e-06
	-4.813342293543169e-06
	1.353761945332077e-05
	1.800000000000000e+00
	1.659622862619448e-03

 24	1.379734883835661e-10
	1.800000000000000e+00
	1.800000000000000e+00
	6.925854913291415e-02
	6.895296491068033e-02
	6.873953164843502e-02
	1.624871604848463e+00
	1.624899419057276e+00
	1.624827514929835e+00
	1.588692516837600e-03
	1.788890748490386e-03
	1.814304410914187e-03
	1.390789293972037e+00
	1.390812926552638e+00
	1.390730336707612e+00
	1.624866179611858e+00
	1.390777519077429e+00
	6.898368189734316e-02
	1.846943618705437e-03
	1.730629225414058e-03
	-2.769684167851860e-06
	4.868804985475191e-06
	-1.267335631999688e-05
	1.800000000000000e+00
	-1.437744525132512e-03

 25	1.479734883835661e-10
	1.800000000000000e+00
	1.800000000000000e+00
	6.820469138594254e-02
	6.851899042162700e-02
	6.871384877171446e-02
	1.625362846913213e+00
	1.625334014892090e+00
	1.625411536163521e+00
	4.982469614477373e-05
	-1.540999950628061e-04
	-1.701078813436832e-04
	1.391248898342842e+00
	1.391224191118601e+00
	1.391312734910715e+00
	1.625369465989608e+00
	1.391261941457386e+00
	6.847917685976133e-02
	-1.600321679096563e-03
	-9.146106008723851e-05
	2.915740410145478e-06
	-4.960824937299765e-06
	1.189732838546994e-05
	1.800000000000000e+00
	1.272372187981603e-03

 26	1.579734883835661e-10
	1.800000000000000e+00
	1.800000000000000e+00
	6.892253824344557e-02
	6.860188673924665e-02
	6.842330433595514e-02
	1.624932576836433e+00
	1.624962267272939e+00
	1.624879892298217e+00
	1.200432759664888e-03
	1.408152008856919e-03
	1.415996004327397e-03
	1.390848225405522e+00
	1.390873846556427e+00
	1.390780157515251e+00
	1.624924912135863e+00
	1.390834076492400e+00
	6.864924310621578e-02
	1.403862769549031e-03
	1.341526924283068e-03
	-3.043976951954120e-06
	5.003753759478397e-06
	-1.124513535578811e-05
	1.800000000000000e+00
	-1.103716790611713e-03

 27	1.679734883835661e-10
	1.800000000000000e+00
	1.800000000000000e+00
	6.800585055592850e-02
	6.833291757237343e-02
	6.849723022950084e-02
	1.625309030591929e+00
	1.625278622213328e+00
	1.625365177841044e+00
	9.506595787325779e-05
	-1.153134739517526e-04
	-1.160705824420666e-04
	1.391198870986868e+00
	1.391172494562464e+00
	1.391270597622186e+00
	1.625317610215433e+00
	1.391213987723839e+00
	6.827866611926758e-02
	-1.216402385027900e-03
	-4.543936617352045e-05
	3.150256088239729e-06
	-5.074526339758276e-06
	1.066010651203949e-05
	1.800000000000000e+00
	9.779719665833839e-04

 28	1.779734883835661e-10
	1.800000000000000e+00
	1.800000000000000e+00
	6.866527555945615e-02
	6.833358989255410e-02
	6.818179756240485e-02
	1.624979003998041e+00
	1.625010009384430e+00
	1.624919853565087e+00
	9.047639749368772e-04
	1.117856006805387e-03
	1.112470642224851e-03
	1.390893352182622e+00
	1.390920364187288e+00
	1.390818459529283e+00
	1.624969622315853e+00
	1.390877391966398e+00
	6.839355433813836e-02
	1.066745918130302e-03
	1.045030207989038e-03
	-3.243798817169692e-06
	5.107808430740771e-06
	-1.016927426534755e-05
	1.800000000000000e+00
	-8.495115655980170e-04

 29	1.879734883835661e-10
	1.800000000000000e+00
	1.800000000000000e+00
	6.785392824329921e-02
	6.819028124237053e-02
	6.833108076575584e-02
	1.625268040100349e+00
	1.625236544296897e+00
	1.625329788497917e+00
	1.289915678032070e-04
	-8.595026167819114e-05
	-7.524168119838942e-05
	1.391161019260002e+00
	1.391133494177053e+00
	1.391238642177149e+00
	1.625278124298388e+00
	1.391177718538068e+00
	6.812509675047519e-02
	-9.241417076990156e-04
	-1.073345835779120e-05
	3.319861320359272e-06
	-5.162361552209357e-06
	9.729571170209153e-06
	1.800000000000000e+00
	7.538920384021139e-04

 30	1.979734883835661e-10
	1.800000000000000e+00
	1.800000000000000e+00
	6.846841272554488e-02
	6.812875968486427e-02
	6.799762084434124e-02
	1.625014385073951e+00
	1.625046279567576e+00
	1.624950388493580e+00
	6.796687567406576e-04
	8.965008680601866e-04
	8.811873895791847e-04
	1.390927994581035e+00
	1.390955944202102e+00
	1.390848016227391e+00
	1.625003684378369e+00
	1.390910651670176e+00
	6.819826441825014e-02
	8.101831504641690e-04
	8.191190047933429e-04
	-3.387047355580701e-06
	5.188321588374357e-06
	-9.361510285320232e-06
	1.800000000000000e+00
	-6.559148712408300e-04

 31	2.079734883835661e-10
	1.800000000000000e+00
	1.800000000000000e+00
	6.773803605071564e-02
	6.808102680360090e-02
	6.820366863447695e-02
	1.625236793833053e+00
	1.625204581499136e+00
	1.625302730137926e+00
	1.544492167687502e-04
	-6.361691611476408e-05
	-4.432180053488470e-05
	1.391132417656753e+00
	1.391104138537513e+00
	1.391214419644154e+00
	1.625248035156705e+00
	1.391150325279473e+00
	6.800757716293115e-02
	-7.016130846907635e-04
	1.550350003970046e-05
	3.440154726402830e-06
	-5.230535253019481e-06
	9.032389669448094e-06
	1.800000000000000e+00
	5.832399903310179e-04

 32	2.179734883835660e-10
	1.800000000000000e+00
	1.800000000000000e+00
	6.831777768412046e-02
	6.797248988431721e-02
	6.785733013916805e-02
	1.625041362431398e+00
	1.625073823094630e+00
	1.624973752698689e+00
	5.083412810059293e-04
	7.276728407440977e-04
	7.049425144247934e-04
	1.390954660318169e+00
	1.390983204090983e+00
	1.390870919835945e+00
	1.625029646074906e+00
	1.390936261415032e+00
	6.804919923586857e-02
	6.148697616307087e-04
	6.469855453916068e-04
	-3.487321618279217e-06
	5.250949227923252e-06
	-8.757752249114316e-06
	1.800000000000000e+00
	-5.084205580274531e-04

 33	2.279734883835660e-10
	1.800000000000000e+00
	1.800000000000000e+00
	6.764977812485708e-02
	6.799739221154744e-02
	6.810595678320616e-02
	1.625212959798706e+00
	1.625180312078486e+00
	1.625282008104145e+00
	1.735451294491326e-04
	-4.655272388632368e-05
	-2.086136200103779e-05
	1.391110852404331e+00
	1.391082118133169e+00
	1.391196078650715e+00
	1.625225093327112e+00
	1.391129683062738e+00
	6.791770903987022e-02
	-5.321469868159132e-04
	3.537701452059040e-05
	3.522997172542675e-06
	-5.283778549469980e-06
	8.512787614658839e-06
	1.800000000000000e+00
	4.532304702541470e-04

 34	2.379734883835660e-10
	1.800000000000000e+00
	1.800000000000000e+00
	6.820248326022270e-02
	6.785333504963806e-02
	6.775059201115449e-02
	1.625061941800740e+00
	1.625094723975611e+00
	1.624991657666286e+00
	3.779768991992831e-04
	5.988655411958630e-04
	5.706288232644138e-04
	1.390975252990837e+00
	1.391004130949801e+00
	1.390888757844356e+00
	1.625049441147545e+00
	1.390956047261665e+00
	6.793547010700508e-02
	4.661491300273937e-04
	5.158237545531866e-04
	-3.554966939033947e-06
	5.299988777900436e-06
	-8.309248376792730e-06
	1.800000000000000e+00
	-3.960199769325531e-04

 35	2.479734883835660e-10
	1.800000000000000e+00
	1.800000000000000e+00
	6.758268559489201e-02
	6.793339072110066e-02
	6.803098851151514e-02
	1.625194767668247e+00
	1.625161897413229e+00
	1.625266108797839e+00
	1.878464069014593e-04
	-3.345346980610140e-05
	-3.032122741199861e-06
	1.391094642970179e+00
	1.391065679587754e+00
	1.391182214469143e+00
	1.625207591293105e+00
	1.391114179009025e+00
	6.784902160916927e-02
	-4.030722857549717e-04
	5.045360478471935e-05
	3.577414445721889e-06
	-5.325678710751101e-06
	8.128332311134760e-06
	1.800000000000000e+00
	3.541561758260425e-04

 36	2.579734883835661e-10
	1.800000000000000e+00
	1.800000000000000e+00
	6.811418657971541e-02
	6.776252755168383e-02
	6.766948500025392e-02
	1.625077648341059e+00
	1.625110566946886e+00
	1.625005404562849e+00
	2.788224925509494e-04
	5.005528364442289e-04
	4.682630441913193e-04
	1.390991220139310e+00
	1.391020235863437e+00
	1.390902737159282e+00
	1.625064539950264e+00
	1.390971397720676e+00
	6.784873304388439e-02
	3.528875200633165e-04
	4.158794577288326e-04
	-3.597857625890840e-06
	5.338698881691745e-06
	-7.978901540588179e-06
	1.800000000000000e+00
	-3.103435011340416e-04

 37	2.679734883835661e-10
	1.800000000000000e+00
	1.800000000000000e+00
	6.753178485279862e-02
	6.788441564614803e-02
	6.797341888479508e-02
	1.625180871681586e+00
	1.625147939759473e+00
	1.625253881929447e+00
	1.985251285973131e-04
	-2.334716260534879e-05
	1.053670755361590e-05
	1.391082511883963e+00
	1.391053489988054e+00
	1.391171759620558e+00
	1.625194231123502e+00
	1.391102587164192e+00
	6.779653979458057e-02
	-3.047529142593493e-04
	6.190489118186007e-05
	3.610277583136294e-06
	-5.358954913135014e-06
	7.846729078476186e-06
	1.800000000000000e+00
	2.786370933653901e-04

 38	2.779734883835661e-10
	1.800000000000000e+00
	1.800000000000000e+00
	6.804650376950291e-02
	6.769336020428238e-02
	6.760794607857210e-02
	1.625089642690021e+00
	1.625122558001040e+00
	1.625015983454834e+00
	2.034488258846404e-04
	4.254782866025471e-04
	3.902407813681633e-04
	1.391003663359673e+00
	1.391032668798032e+00
	1.390913776135550e+00
	1.625076061381965e+00
	1.390983369431085e+00
	6.778260335078579e-02
	2.666214063203834e-04
	3.397226312851169e-04
	-3.621988916446319e-06
	5.369551574983572e-06
	-7.738472972697330e-06
	1.800000000000000e+00
	-2.450226683700929e-04

 39	2.879734883835661e-10
	1.800000000000000e+00
	1.800000000000000e+00
	6.749325949226530e-02
	6.784692992840677e-02
	6.792914874266902e-02
	1.625170248061150e+00
	1.625137375762578e+00
	1.625244452590766e+00
	2.064616560659132e-04
	-1.550577517103470e-05
	2.087675493081386e-05
	1.391073487333945e+00
	1.391044535316885e+00
	1.391163902219483e+00
	1.625184025471498e+00
	1.391093974956771e+00
	6.775644605444703e-02
	-2.298573133484045e-04
	7.061087860856411e-05
	3.626818449952209e-06
	-5.385670068036000e-06
	7.643390998268913e-06
	1.800000000000000e+00
	2.210584932065204e-04

 40	2.979734883835661e-10
	1.800000000000000e+00
	1.800000000000000e+00
	6.799455475713172e-02
	6.764070675695731e-02
	6.756133953175394e-02
	1.625098808481237e+00
	1.625131615303913e+00
	1.625024148055500e+00
	1.461961374721286e-04
	3.681137035240238e-04
	3.307689178376810e-04
	1.391013421350912e+00
	1.391042305275362e+00
	1.390922573903474e+00
	1.625084857280217e+00
	1.390992766843249e+00
	6.773220034861432e-02
	2.009131423783287e-04
	2.816929196112778e-04
	-3.631926162064509e-06
	5.394423797733759e-06
	-7.566460688496549e-06
	1.800000000000000e+00
	-1.952094067161902e-04

 41	3.079734883835662e-10
	1.800000000000000e+00
	1.800000000000000e+00
	6.746418570953561e-02
	6.781822249843480e-02
	6.789503890707642e-02
	1.625162117589329e+00
	1.625129396071038e+00
	1.625237154964376e+00
	2.123194604674874e-04
	-9.381838232952271e-06
	2.876667267187014e-05
	1.391066829662596e+00
	1.391038043786661e+00
	1.391158024428898e+00
	1.625176222874914e+00
	1.391087632626052e+00
	6.772581570501561e-02
	-1.728049864867087e-04
	7.723476496880176e-05
	3.631021293671648e-06
	-5.407390689674972e-06
	7.499594462989959e-06
	1.800000000000000e+00
	1.771466496488586e-04

 42	3.179734883835662e-10
	1.800000000000000e+00
	1.800000000000000e+00
	6.795461167534315e-02
	6.760065185074991e-02
	6.752612364812453e-02
	1.625105818658278e+00
	1.625138438092167e+00
	1.625030472334684e+00
	1.027521877083638e-04
	3.242470500454144e-04
	2.854336587212634e-04
	1.391021132845781e+00
	1.391049812060293e+00
	1.390929662874140e+00
	1.625091576361710e+00
	1.391000202593405e+00
	6.769379572473920e-02
	1.508636409512871e-04
	2.374776321583472e-04
	-3.631146172169574e-06
	5.414741808814000e-06
	-7.446488629274286e-06
	1.800000000000000e+00
	-1.572118767037764e-04

 43	3.279734883835662e-10
	1.800000000000000e+00
	1.800000000000000e+00
	6.744232627066973e-02
	6.779621816148711e-02
	6.786868805162224e-02
	1.625155886974910e+00
	1.625123384449778e+00
	1.625231482153021e+00
	2.165998670362419e-04
	-4.562373904245268e-06
	3.479551326482278e-05
	1.391061975703428e+00
	1.391033427772182e+00
	1.391153655889110e+00
	1.625170251192569e+00
	1.391083019788240e+00
	6.770241082792636e-02
	-1.293468812993177e-04
	8.227766879893978e-05
	3.625920427837934e-06
	-5.425307296227076e-06
	7.401078148727377e-06
	1.800000000000000e+00
	1.436474468963014e-04

 44	3.379734883835662e-10
	1.800000000000000e+00
	1.800000000000000e+00
	6.792382831948723e-02
	6.757020645897939e-02
	6.749959407183991e-02
	1.625111185822158e+00
	1.625143558985749e+00
	1.625035393485903e+00
	6.983111460722585e-05
	2.906687833759244e-04
	2.508717875112906e-04
	1.391027284393570e+00
	1.391055697040106e+00
	1.390935448593157e+00
	1.625096712764603e+00
	1.391006143342278e+00
	6.766454295010217e-02
	1.127432516306481e-04
	2.037905618314802e-04
	-3.622296823314127e-06
	5.431590112626593e-06
	-7.366082579826790e-06
	1.800000000000000e+00
	-1.282180619948045e-04

 45	3.479734883835662e-10
	1.800000000000000e+00
	1.800000000000000e+00
	6.742597088045175e-02
	6.777933006649380e-02
	6.784826083259013e-02
	1.625151104367959e+00
	1.625118871580875e+00
	1.625227048132724e+00
	2.196824501549169e-04
	-7.350989160008774e-07
	3.940967948505007e-05
	1.391058496550776e+00
	1.391030239751435e+00
	1.391150438404371e+00
	1.625165674693853e+00
	1.391079724902194e+00
	6.768452059317856e-02
	-9.624689772599189e-05
	8.611901024132203e-05
	3.613826701328209e-06
	-5.440325224308749e-06
	7.336977990791852e-06
	1.800000000000000e+00
	1.180824907631925e-04

 46	3.579734883835662e-10
	1.800000000000000e+00
	1.800000000000000e+00
	6.790003248716714e-02
	6.754708956938171e-02
	6.747968671027411e-02
	1.625115300501546e+00
	1.625147383753395e+00
	1.625039244580399e+00
	4.492895155010224e-05
	2.649330683484878e-04
	2.245204074270890e-04
	1.391032246679190e+00
	1.391060347139056e+00
	1.390940240026104e+00
	1.625100642945113e+00
	1.391010944614783e+00
	6.764226958894098e-02
	8.371178145897582e-05
	1.781274757752263e-04
	-3.607394614063414e-06
	5.445793764086171e-06
	-7.315739346706125e-06
	1.800000000000000e+00
	-1.060857198433782e-04

 47	3.679734883835663e-10
	1.800000000000000e+00
	1.800000000000000e+00
	6.741381299365466e-02
	6.776634572088237e-02
	6.783235539095603e-02
	1.625147425569980e+00
	1.625115499969014e+00
	1.625223558863207e+00
	2.218550505484057e-04
	2.336572679313394e-06
	4.294792702683406e-05
	1.391056065483763e+00
	1.391028138837447e+00
	1.391148099131362e+00
	1.625162161467400e+00
	1.391077434484191e+00
	6.767083803516435e-02
	-7.103992302990996e-05
	8.904651675151772e-05
	3.596499871007060e-06
	-5.453133268197574e-06
	7.299017075375943e-06
	1.800000000000000e+00
	9.856382544908004e-05

 48	3.779734883835663e-10
	1.800000000000000e+00
	1.800000000000000e+00
	6.788156686314362e-02
	6.752956096087190e-02
	6.746482666002861e-02
	1.625118460260618e+00
	1.625150221558855e+00
	1.625042279399605e+00
	2.613745838690729e-05
	2.451759428181582e-04
	2.044263788621550e-04
	1.391036302151088e+00
	1.391064057160907e+00
	1.390944272593233e+00
	1.625103653739692e+00
	1.391014877301743e+00
	6.762531816134804e-02
	6.160589122275463e-05
	1.585799266890735e-04
	-3.587975059237705e-06
	5.457980671369847e-06
	-7.288218547701138e-06
	1.800000000000000e+00
	-8.918263706023111e-05

 49	3.879734883835663e-10
	1.800000000000000e+00
	1.800000000000000e+00
	6.740485503640947e-02
	6.775633921586825e-02
	6.781990148891147e-02
	1.625144588344448e+00
	1.625112997258598e+00
	1.625220790329403e+00
	2.233362068381492e-04
	4.832140294730962e-06
	4.566758927774954e-05
	1.391054433580805e+00
	1.391026865332835e+00
	1.391146430202042e+00
	1.625159458644150e+00
	1.391075909705227e+00
	6.766036524706306e-02
	-5.184786603682566e-05
	9.127864547020989e-05
	3.575279845317597e-06
	-5.464255653681656e-06
	7.280889131277743e-06
	1.800000000000000e+00
	8.365305902494069e-05

 50	3.979734883835663e-10
	1.800000000000000e+00
	1.800000000000000e+00
	6.786716725761933e-02
	6.751629327045411e-02
	6.745381256629063e-02
	1.625120891851309e+00
	1.625152307980010e+00
	1.625044691331663e+00