Title: * o:\vsd intern\lt spice\schematics\nand.asc
Date: Thu Feb  4 23:34:08  2021
Plotname: Transient Analysis
Flags: real
No. Variables: 2
No. Points: 5066
Variables:
	0	time	time
	1	v(y)	voltage
Values:
 0	0.000000000000000e+00
	1.799999997716233e+00

 1	1.000000000000000e-13
	1.812912553129879e+00

 2	2.000000000000000e-13
	1.824827844207437e+00

 3	4.000000000000000e-13
	1.847748048135962e+00

 4	8.000000000000000e-13
	1.889564909931503e+00

 5	1.600000000000000e-12
	1.961494834841895e+00

 6	3.200000000000000e-12
	2.083494688354134e+00

 7	6.400000000000000e-12
	2.192856582823565e+00

 8	9.999999999999999e-12
	1.767053470305030e+00

 9	1.064000000000000e-11
	1.518148191991417e+00

 10	1.192000000000000e-11
	1.027077393525005e+00

 11	1.448000000000000e-11
	3.446317875707796e-01

 12	1.960000000000000e-11
	-1.426223513521023e-02

 13	2.798262018387691e-11
	8.991052462971418e-03

 14	3.797348838356612e-11
	-6.639817703913253e-03

 15	4.797348838356612e-11
	5.385913039570880e-03

 16	5.797348838356612e-11
	-4.429014336351997e-03

 17	6.797348838356611e-11
	3.817888070410176e-03

 18	7.797348838356612e-11
	-3.253794001720052e-03

 19	8.797348838356612e-11
	2.856517178952959e-03

 20	9.797348838356613e-11
	-2.460735611234263e-03

 21	1.079734883835661e-10
	2.171499576205875e-03

 22	1.179734883835661e-10
	-1.877483376765701e-03

 23	1.279734883835661e-10
	1.659622862619448e-03

 24	1.379734883835661e-10
	-1.437744525132512e-03

 25	1.479734883835661e-10
	1.272372187981603e-03

 26	1.579734883835661e-10
	-1.103716790611713e-03

 27	1.679734883835661e-10
	9.779719665833839e-04

 28	1.779734883835661e-10
	-8.495115655980170e-04

 29	1.879734883835661e-10
	7.538920384021139e-04

 30	1.979734883835661e-10
	-6.559148712408300e-04

 31	2.079734883835661e-10
	5.832399903310179e-04

 32	2.179734883835660e-10
	-5.084205580274531e-04

 33	2.279734883835660e-10
	4.532304702541470e-04

 34	2.379734883835660e-10
	-3.960199769325531e-04

 35	2.479734883835660e-10
	3.541561758260425e-04

 36	2.579734883835661e-10
	-3.103435011340416e-04

 37	2.679734883835661e-10
	2.786370933653901e-04

 38	2.779734883835661e-10
	-2.450226683700929e-04

 39	2.879734883835661e-10
	2.210584932065204e-04

 40	2.979734883835661e-10
	-1.952094067161902e-04

 41	3.079734883835662e-10
	1.771466496488586e-04

 42	3.179734883835662e-10
	-1.572118767037764e-04

 43	3.279734883835662e-10
	1.436474468963014e-04

 44	3.379734883835662e-10
	-1.282180619948045e-04

 45	3.479734883835662e-10
	1.180824907631925e-04

 46	3.579734883835662e-10
	-1.060857198433782e-04

 47	3.679734883835663e-10
	9.856382544908004e-05

 48	3.779734883835663e-10
	-8.918263706023111e-05

 49	3.879734883835663e-10
	8.365305902494069e-05

 50	3.979734883835663e-10
	-7.626507623346296e-05

 51	4.079734883835663e-10
	7.225418939742906e-05

 52	4.179734883835663e-10
	-6.638524388961897e-05

 53	4.279734883835664e-10
	6.353203148629777e-05

 54	4.379734883835664e-10
	-5.882082932784360e-05

 55	4.479734883835664e-10
	5.685010869707630e-05

 56	4.579734883835664e-10
	-5.302133709116780e-05

 57	4.679734883835664e-10
	5.172335164109476e-05

 58	4.779734883835663e-10
	-4.856720321901042e-05

 59	4.879734883835663e-10
	4.778206678281161e-05

 60	4.979734883835663e-10
	-4.513864572194132e-05

 61	5.079734883835662e-10
	4.474448550098598e-05

 62	5.179734883835662e-10
	-4.249192925142448e-05

 63	5.279734883835662e-10
	4.239449356945729e-05

 64	5.379734883835661e-10
	-4.043948147940818e-05

 65	5.479734883835661e-10
	4.056398492898600e-05

 66	5.579734883835661e-10
	-3.884626645828115e-05

 67	5.679734883835660e-10
	3.913733975089567e-05

 68	5.779734883835660e-10
	-3.759350733647387e-05

 69	5.879734883835660e-10
	3.802139911279756e-05

 70	5.979734883835659e-10
	-3.660770019520837e-05

 71	6.079734883835659e-10
	3.713886424935170e-05

 72	6.179734883835659e-10
	-3.582393021215463e-05

 73	6.279734883835658e-10
	3.643365540666882e-05

 74	6.379734883835658e-10
	-3.519397368079852e-05

 75	6.479734883835658e-10
	3.586359597678584e-05

 76	6.579734883835657e-10
	-3.468132396609869e-05

 77	6.679734883835657e-10
	3.539665077503112e-05

 78	6.779734883835656e-10
	-3.425820389019174e-05

 79	6.879734883835656e-10
	3.500842333507143e-05

 80	6.979734883835656e-10
	-3.390344972366288e-05

 81	7.079734883835655e-10
	3.468032139748722e-05

 82	7.179734883835655e-10
	-3.360093078971088e-05

 83	7.279734883835655e-10
	3.439817332497735e-05

 84	7.379734883835654e-10
	-3.333835125270829e-05

 85	7.479734883835654e-10
	3.415117638107257e-05

 86	7.579734883835654e-10
	-3.310633808186608e-05

 87	7.679734883835653e-10
	3.393109565510977e-05

 88	7.779734883835653e-10
	-3.289774614621127e-05

 89	7.879734883835653e-10
	3.373165353482560e-05

 90	7.979734883835652e-10
	-3.270712850534513e-05

 91	8.079734883835652e-10
	3.354806438863461e-05

 92	8.179734883835652e-10
	-3.253033270713551e-05

 93	8.279734883835651e-10
	3.337667984683323e-05

 94	8.379734883835651e-10
	-3.236419303914717e-05

 95	8.479734883835651e-10
	3.321471844112966e-05

 96	8.579734883835650e-10
	-3.220629590997004e-05

 97	8.679734883835650e-10
	3.306005948075508e-05

 98	8.779734883835650e-10
	-3.205480107687508e-05

 99	8.879734883835649e-10
	3.291108601824466e-05

 100	8.979734883835649e-10
	-3.190830532137645e-05

 101	9.079734883835649e-10
	3.276656500210418e-05

 102	9.179734883835648e-10
	-3.176573856328996e-05

 103	9.279734883835648e-10
	3.262555610282492e-05

 104	9.379734883835649e-10
	-3.162628465380735e-05

 105	9.479734883835648e-10
	3.248734206846848e-05

 106	9.579734883835648e-10
	-3.148932101534885e-05

 107	9.679734883835648e-10
	3.235137570051921e-05

 108	9.779734883835647e-10
	-3.135437262354046e-05

 109	9.879734883835647e-10
	3.221723944301508e-05

 110	9.979734883835646e-10
	-3.122107692965503e-05

 111	1.007973488383565e-09
	3.208461454887179e-05

 112	1.017973488383565e-09
	-3.108915712399934e-05

 113	1.027973488383565e-09
	3.195325760613904e-05

 114	1.037973488383565e-09
	-3.095840175285774e-05

 115	1.047973488383564e-09
	3.182298261143052e-05

 116	1.057973488383564e-09
	-3.082864918401568e-05

 117	1.067973488383564e-09
	3.169364734267877e-05

 118	1.077973488383564e-09
	-3.069977576676541e-05

 119	1.087973488383564e-09
	3.156514294645058e-05

 120	1.097973488383564e-09
	-3.057168680945660e-05

 121	1.107973488383564e-09
	3.143738600591695e-05

 122	1.117973488383564e-09
	-3.044430969186690e-05

 123	1.127973488383564e-09
	3.131031248782695e-05

 124	1.137973488383564e-09
	-3.031758861135603e-05

 125	1.147973488383564e-09
	3.118387316276838e-05

 126	1.157973488383564e-09
	-3.019148060461746e-05

 127	1.167973488383564e-09
	3.105803006300811e-05

 128	1.177973488383564e-09
	-3.006595249350347e-05

 129	1.187973488383564e-09
	3.093275380806892e-05

 130	1.197973488383564e-09
	-2.994097856066913e-05

 131	1.207973488383564e-09
	3.080802159232537e-05

 132	1.217973488383564e-09
	-2.981653875277351e-05

 133	1.227973488383564e-09
	3.068381559176436e-05

 134	1.237973488383564e-09
	-2.969261739899087e-05

 135	1.247973488383564e-09
	3.056012181591045e-05

 136	1.257973488383564e-09
	-2.956920209546549e-05

 137	1.267973488383564e-09
	3.043692914818374e-05

 138	1.277973488383564e-09
	-2.944628298502672e-05

 139	1.287973488383564e-09
	3.031422872742245e-05

 140	1.297973488383564e-09
	-2.932385214375610e-05

 141	1.307973488383564e-09
	3.019201336733335e-05

 142	1.317973488383564e-09
	-2.920190309878279e-05

 143	1.327973488383564e-09
	3.007027718330418e-05

 144	1.337973488383563e-09
	-2.908043051506881e-05

 145	1.347973488383563e-09
	2.994901527270805e-05

 146	1.357973488383563e-09
	-2.895942992840739e-05

 147	1.367973488383563e-09
	2.982822350205278e-05

 148	1.377973488383563e-09
	-2.883889749816931e-05

 149	1.387973488383563e-09
	2.970789829657289e-05

 150	1.397973488383563e-09
	-2.871882992012270e-05

 151	1.407973488383563e-09
	2.958803654618675e-05

 152	1.417973488383563e-09
	-2.859922425669376e-05

 153	1.427973488383563e-09
	2.946863545974510e-05

 154	1.437973488383563e-09
	-2.848007787845108e-05

 155	1.447973488383563e-09
	2.934969253150926e-05

 156	1.457973488383563e-09
	-2.836138837343516e-05

 157	1.467973488383563e-09
	2.923120543831675e-05

 158	1.477973488383563e-09
	-2.824315351394185e-05

 159	1.487973488383563e-09
	2.911317201426816e-05

 160	1.497973488383563e-09
	-2.812537120545910e-05

 161	1.507973488383563e-09
	2.899559022467857e-05

 162	1.517973488383563e-09
	-2.800803946057667e-05

 163	1.527973488383563e-09
	2.887845812236250e-05

 164	1.537973488383563e-09
	-2.789115637057138e-05

 165	1.547973488383563e-09
	2.876177383651091e-05

 166	1.557973488383563e-09
	-2.777472009589388e-05

 167	1.567973488383563e-09
	2.864553555156912e-05

 168	1.577973488383563e-09
	-2.765872885161086e-05

 169	1.587973488383563e-09
	2.852974149934046e-05

 170	1.597973488383563e-09
	-2.754318089598362e-05

 171	1.607973488383563e-09
	2.841438995430934e-05

 172	1.617973488383563e-09
	-2.742807449896550e-05

 173	1.627973488383562e-09
	2.829947921564879e-05

 174	1.637973488383562e-09
	-2.731340799869142e-05

 175	1.647973488383562e-09
	2.818500760648490e-05

 176	1.657973488383562e-09
	-2.719917971165386e-05

 177	1.667973488383562e-09
	2.807097347807402e-05

 178	1.677973488383562e-09
	-2.708538800443028e-05

 179	1.687973488383562e-09
	2.795737519237229e-05

 180	1.697973488383562e-09
	-2.697203125126557e-05

 181	1.707973488383562e-09
	2.784421114109675e-05

 182	1.717973488383562e-09
	-2.685910783965101e-05

 183	1.727973488383562e-09
	2.773147969970663e-05

 184	1.737973488383562e-09
	-2.674661617160096e-05

 185	1.747973488383562e-09
	2.761917929153257e-05

 186	1.757973488383562e-09
	-2.663455466365289e-05

 187	1.767973488383562e-09
	2.750730833198795e-05

 188	1.777973488383562e-09
	-2.652292173015158e-05

 189	1.787973488383562e-09
	2.739586524732468e-05

 190	1.797973488383562e-09
	-2.641171582168367e-05

 191	1.807973488383562e-09
	2.728484847853291e-05

 192	1.817973488383562e-09
	-2.630093536366840e-05

 193	1.827973488383562e-09
	2.717425646128757e-05

 194	1.837973488383562e-09
	-2.619057881479009e-05

 195	1.847973488383562e-09
	2.706408767588764e-05

 196	1.857973488383562e-09
	-2.608064464627857e-05

 197	1.867973488383562e-09
	2.695434056644574e-05

 198	1.877973488383562e-09
	-2.597113131241890e-05

 199	1.887973488383562e-09
	2.684501361857605e-05

 200	1.897973488383562e-09
	-2.586203729772196e-05

 201	1.907973488383563e-09
	2.673610530172510e-05

 202	1.917973488383563e-09
	-2.575336108791293e-05

 203	1.927973488383563e-09
	2.662761411499626e-05

 204	1.937973488383563e-09
	-2.564510117245705e-05

 205	1.947973488383563e-09
	2.651953854636291e-05

 206	1.957973488383563e-09
	-2.553725605212998e-05

 207	1.967973488383564e-09
	2.641187710358123e-05

 208	1.977973488383564e-09
	-2.542982423013596e-05

 209	1.987973488383564e-09
	2.630462829434493e-05

 210	1.997973488383564e-09
	-2.532280422855998e-05

 211	2.007973488383564e-09
	2.619779064001043e-05

 212	2.017973488383564e-09
	-2.521619456575391e-05

 213	2.027973488383565e-09
	2.609136265796508e-05

 214	2.037973488383565e-09
	-2.510999376019452e-05

 215	2.047973488383565e-09
	2.598534288704435e-05

 216	2.057973488383565e-09
	-2.500420035963374e-05

 217	2.067973488383565e-09
	2.587972986089343e-05

 218	2.077973488383565e-09
	-2.489881289754331e-05

 219	2.087973488383566e-09
	2.577452212094988e-05

 220	2.097973488383566e-09
	-2.479382992986306e-05

 221	2.107973488383566e-09
	2.566971822291764e-05

 222	2.117973488383566e-09
	-2.468924999830813e-05

 223	2.127973488383566e-09
	2.556531672198020e-05

 224	2.137973488383567e-09
	-2.458507168109220e-05

 225	2.147973488383567e-09
	2.546131618290370e-05

 226	2.157973488383567e-09
	-2.448129352825013e-05

 227	2.167973488383567e-09
	2.535771518411695e-05

 228	2.177973488383567e-09
	-2.437791412696760e-05

 229	2.187973488383567e-09
	2.525451228964359e-05

 230	2.197973488383568e-09
	-2.427493204862352e-05

 231	2.207973488383568e-09
	2.515170608546197e-05

 232	2.217973488383568e-09
	-2.417234588726613e-05

 233	2.227973488383568e-09
	2.504929516006921e-05

 234	2.237973488383568e-09
	-2.407015422319081e-05

 235	2.247973488383568e-09
	2.494727811330755e-05

 236	2.257973488383569e-09
	-2.396835566964572e-05

 237	2.267973488383569e-09
	2.484565354794049e-05

 238	2.277973488383569e-09
	-2.386694881978402e-05

 239	2.287973488383569e-09
	2.474442006566990e-05

 240	2.297973488383569e-09
	-2.376593229271029e-05

 241	2.307973488383569e-09
	2.464357627735003e-05

 242	2.317973488383570e-09
	-2.366530469417177e-05

 243	2.327973488383570e-09
	2.454312080798354e-05

 244	2.337973488383570e-09
	-2.356506465133607e-05

 245	2.347973488383570e-09
	2.444305228003346e-05

 246	2.357973488383570e-09
	-2.346521079450714e-05

 247	2.367973488383570e-09
	2.434336931962655e-05

 248	2.377973488383571e-09
	-2.336574175659106e-05

 249	2.387973488383571e-09
	2.424407056620531e-05

 250	2.397973488383571e-09
	-2.326665617564949e-05

 251	2.407973488383571e-09
	2.414515466190453e-05

 252	2.417973488383571e-09
	-2.316795268956368e-05

 253	2.427973488383571e-09
	2.404662025387583e-05

 254	2.437973488383572e-09
	-2.306962995563683e-05

 255	2.447973488383572e-09
	2.394846599505090e-05

 256	2.457973488383572e-09
	-2.297168662558635e-05

 257	2.467973488383572e-09
	2.385069053794514e-05

 258	2.477973488383572e-09
	-2.287412136809525e-05

 259	2.487973488383573e-09
	2.375329254920150e-05

 260	2.497973488383573e-09
	-2.277693284621907e-05

 261	2.507973488383573e-09
	2.365627069904341e-05

 262	2.517973488383573e-09
	-2.268011972134804e-05

 263	2.527973488383573e-09
	2.355962366385606e-05

 264	2.537973488383573e-09
	-2.258368068043526e-05

 265	2.547973488383574e-09
	2.346335011511186e-05

 266	2.557973488383574e-09
	-2.248761440928199e-05

 267	2.567973488383574e-09
	2.336744873878555e-05

 268	2.577973488383574e-09
	-2.239191957793818e-05

 269	2.587973488383574e-09
	2.327191823305041e-05

 270	2.597973488383574e-09
	-2.229659489507568e-05

 271	2.607973488383575e-09
	2.317675728344404e-05

 272	2.617973488383575e-09
	-2.220163905421874e-05

 273	2.627973488383575e-09
	2.308196459288592e-05

 274	2.637973488383575e-09
	-2.210705075273572e-05

 275	2.647973488383575e-09
	2.298753886413596e-05

 276	2.657973488383575e-09
	-2.201282870763210e-05

 277	2.667973488383576e-09
	2.289347880651132e-05

 278	2.677973488383576e-09
	-2.191897161987755e-05

 279	2.687973488383576e-09
	2.279978313565745e-05

 280	2.697973488383576e-09
	-2.182547821411029e-05

 281	2.707973488383576e-09
	2.270645057018961e-05

 282	2.717973488383576e-09
	-2.173234720779377e-05

 283	2.727973488383577e-09
	2.261347983623097e-05

 284	2.737973488383577e-09
	-2.163957732755767e-05

 285	2.747973488383577e-09
	2.252086966595540e-05

 286	2.757973488383577e-09
	-2.154716731214007e-05

 287	2.767973488383577e-09
	2.242861877709695e-05

 288	2.777973488383578e-09
	-2.145511589059235e-05

 289	2.787973488383578e-09
	2.233672592888425e-05

 290	2.797973488383578e-09
	-2.136342180720369e-05

 291	2.807973488383578e-09
	2.224518985019519e-05

 292	2.817973488383578e-09
	-2.127208380291873e-05

 293	2.827973488383578e-09
	2.215400929050232e-05

 294	2.837973488383579e-09
	-2.118110063475953e-05

 295	2.847973488383579e-09
	2.206318300438520e-05

 296	2.857973488383579e-09
	-2.109047105501582e-05

 297	2.867973488383579e-09
	2.197270974906712e-05

 298	2.877973488383579e-09
	-2.100019381660878e-05

 299	2.887973488383579e-09
	2.188258828467876e-05

 300	2.897973488383580e-09
	-2.091026769230481e-05

 301	2.907973488383580e-09
	2.179281737961503e-05

 302	2.917973488383580e-09
	-2.082069144384441e-05

 303	2.927973488383580e-09
	2.170339579711522e-05

 304	2.937973488383580e-09
	-2.073146384350133e-05

 305	2.947973488383580e-09
	2.161432231619770e-05

 306	2.957973488383581e-09
	-2.064258367748956e-05

 307	2.967973488383581e-09
	2.152559571887841e-05

 308	2.977973488383581e-09
	-2.055404971860325e-05

 309	2.987973488383581e-09
	2.143721477832622e-05

 310	2.997973488383581e-09
	-2.046586075132861e-05

 311	3.007973488383581e-09
	2.134917829321736e-05

 312	3.017973488383582e-09
	-2.037801557136509e-05

 313	3.027973488383582e-09
	2.126148504580372e-05

 314	3.037973488383582e-09
	-2.029051296775081e-05

 315	3.047973488383582e-09
	2.117413383949385e-05

 316	3.057973488383582e-09
	-2.020335174632987e-05

 317	3.067973488383583e-09
	2.108712346717001e-05

 318	3.077973488383583e-09
	-2.011653069916575e-05

 319	3.087973488383583e-09
	2.100045273717432e-05

 320	3.097973488383583e-09
	-2.003004863981861e-05

 321	3.107973488383583e-09
	2.091412046596047e-05

 322	3.117973488383583e-09
	-1.994390437492360e-05

 323	3.127973488383584e-09
	2.082812544929730e-05

 324	3.137973488383584e-09
	-1.985809672419570e-05

 325	3.147973488383584e-09
	2.074246651347783e-05

 326	3.157973488383584e-09
	-1.977262450061218e-05

 327	3.167973488383584e-09
	2.065714248149220e-05

 328	3.177973488383584e-09
	-1.968748653123631e-05

 329	3.187973488383585e-09
	2.057215217261127e-05

 330	3.197973488383585e-09
	-1.960268164515055e-05

 331	3.207973488383585e-09
	2.048749441843634e-05

 332	3.217973488383585e-09
	-1.951820866930715e-05

 333	3.227973488383585e-09
	2.040316804321346e-05

 334	3.237973488383585e-09
	-1.943406644303036e-05

 335	3.247973488383586e-09
	2.031917190203902e-05

 336	3.257973488383586e-09
	-1.935025379441041e-05

 337	3.267973488383586e-09
	2.023550481376063e-05

 338	3.277973488383586e-09
	-1.926676958140944e-05

 339	3.287973488383586e-09
	2.015216564024008e-05

 340	3.297973488383586e-09
	-1.918361263521240e-05

 341	3.307973488383587e-09
	2.006915321655506e-05

 342	3.317973488383587e-09
	-1.910078181711905e-05

 343	3.327973488383587e-09
	1.998646640698903e-05

 344	3.337973488383587e-09
	-1.901827597819428e-05

 345	3.347973488383587e-09
	1.990410405714599e-05

 346	3.357973488383588e-09
	-1.893609397469326e-05

 347	3.367973488383588e-09
	1.982206502756240e-05

 348	3.377973488383588e-09
	-1.885423467623548e-05

 349	3.387973488383588e-09
	1.974034818605364e-05

 350	3.397973488383588e-09
	-1.877269693210948e-05

 351	3.407973488383588e-09
	1.965895240056692e-05

 352	3.417973488383589e-09
	-1.869147962769296e-05

 353	3.427973488383589e-09
	1.957787654079807e-05

 354	3.437973488383589e-09
	-1.861058163193235e-05

 355	3.447973488383589e-09
	1.949711947349386e-05

 356	3.457973488383589e-09
	-1.853000181291364e-05

 357	3.467973488383589e-09
	1.941668008476755e-05

 358	3.477973488383590e-09
	-1.844973905965053e-05

 359	3.487973488383590e-09
	1.933655726653327e-05

 360	3.497973488383590e-09
	-1.836979225263574e-05

 361	3.507973488383590e-09
	1.925674987680176e-05

 362	3.517973488383590e-09
	-1.829016028665614e-05

 363	3.527973488383590e-09
	1.917725682881039e-05

 364	3.537973488383591e-09
	-1.821084204097628e-05

 365	3.547973488383591e-09
	1.909807700626459e-05

 366	3.557973488383591e-09
	-1.813183642002808e-05

 367	3.567973488383591e-09
	1.901920930261897e-05

 368	3.577973488383591e-09
	-1.805314231705102e-05

 369	3.587973488383591e-09
	1.894065262322830e-05

 370	3.597973488383592e-09
	-1.797475863474923e-05

 371	3.607973488383592e-09
	1.886240586482235e-05

 372	3.617973488383592e-09
	-1.789668427838731e-05

 373	3.627973488383592e-09
	1.878446794663369e-05

 374	3.637973488383592e-09
	-1.781891815440251e-05

 375	3.647973488383593e-09
	1.870683776603044e-05

 376	3.657973488383593e-09
	-1.774145918462255e-05

 377	3.667973488383593e-09
	1.862951423905329e-05

 378	3.677973488383593e-09
	-1.766430627336141e-05

 379	3.687973488383593e-09
	1.855249629133249e-05

 380	3.697973488383593e-09
	-1.758745834428560e-05

 381	3.707973488383594e-09
	1.847578283415557e-05

 382	3.717973488383594e-09
	-1.698058062640784e-05

 383	3.727973488383593e-09
	1.868523077092760e-05

 384	3.737973488383593e-09
	-1.756102167631279e-05

 385	3.747973488383593e-09
	1.838036056286269e-05

 386	3.757973488383593e-09
	-1.685702256249560e-05

 387	3.767973488383593e-09
	1.854260125547930e-05

 388	3.777973488383592e-09
	-1.741340757976245e-05

 389	3.787973488383592e-09
	1.823071983753088e-05

 390	3.797973488383592e-09
	-1.671061465796653e-05

 391	3.807973488383592e-09
	1.838990664493334e-05

 392	3.817973488383591e-09
	-1.673934188775594e-05

 393	3.827973488383591e-09
	1.836185415086261e-05

 394	3.837973488383591e-09
	-1.668680504906400e-05

 395	3.847973488383591e-09
	1.829560568085420e-05

 396	3.857973488383590e-09
	-1.661784760937507e-05

 397	3.867973488383590e-09
	1.822178952578385e-05

 398	3.877973488383590e-09
	-1.654578430635573e-05

 399	3.887973488383590e-09
	1.814669220103621e-05

 400	3.897973488383589e-09
	-1.647334323059968e-05

 401	3.907973488383589e-09
	1.807159673814646e-05

 402	3.917973488383589e-09
	-1.640107740527585e-05

 403	3.927973488383589e-09
	1.799675928401689e-05

 404	3.937973488383588e-09
	-1.632909423293638e-05

 405	3.947973488383588e-09
	1.792222642461178e-05

 406	3.957973488383588e-09
	-1.625741079181592e-05

 407	3.967973488383588e-09
	1.784800291348976e-05

 408	3.977973488383587e-09
	-1.618602655518997e-05

 409	3.987973488383587e-09
	1.777408583689827e-05

 410	3.997973488383587e-09
	-1.611493816493920e-05

 411	4.007973488383587e-09
	1.770047144924319e-05

 412	4.017973488383586e-09
	-1.604414225722661e-05

 413	4.027973488383586e-09
	1.762715638572998e-05

 414	4.037973488383586e-09
	-1.597363590678802e-05

 415	4.047973488383586e-09
	1.755413779364751e-05

 416	4.057973488383586e-09
	-1.590341662289357e-05

 417	4.067973488383585e-09
	1.748141322401725e-05

 418	4.077973488383585e-09
	-1.583348226606024e-05

 419	4.087973488383585e-09
	1.740898060046542e-05

 420	4.097973488383585e-09
	-1.576383095230199e-05

 421	4.107973488383584e-09
	1.733683807027958e-05

 422	4.117973488383584e-09
	-1.569446102257094e-05

 423	4.127973488383584e-09
	1.726498400305559e-05

 424	4.137973488383584e-09
	-1.562537098439426e-05

 425	4.147973488383583e-09
	1.719341691374526e-05

 426	4.157973488383583e-09
	-1.555655943093898e-05

 427	4.167973488383583e-09
	1.712213542605368e-05

 428	4.177973488383583e-09
	-1.548802509242220e-05

 429	4.187973488383582e-09
	1.705113826920568e-05

 430	4.197973488383582e-09
	-1.541976673180567e-05

 431	4.207973488383582e-09
	1.698042423174673e-05

 432	4.217973488383582e-09
	-1.535178320671848e-05

 433	4.227973488383581e-09
	1.690999214933042e-05

 434	4.237973488383581e-09
	-1.528407338562826e-05

 435	4.247973488383581e-09
	1.683984091202517e-05

 436	4.257973488383581e-09
	-1.521663618717084e-05

 437	4.267973488383580e-09
	1.676996944121462e-05

 438	4.277973488383580e-09
	-1.514947055557270e-05

 439	4.287973488383580e-09
	1.670037666706009e-05

 440	4.297973488383580e-09
	-1.508257545498881e-05

 441	4.307973488383579e-09
	1.663106155880278e-05

 442	4.317973488383579e-09
	-1.501594985830329e-05

 443	4.327973488383579e-09
	1.656202308678717e-05

 444	4.337973488383579e-09
	-1.494959276390068e-05

 445	4.347973488383579e-09
	1.649326024943942e-05

 446	4.357973488383578e-09
	-1.488350316988796e-05

 447	4.367973488383578e-09
	1.642477204487347e-05

 448	4.377973488383578e-09
	-1.481768009416184e-05

 449	4.387973488383578e-09
	1.635655747578291e-05

 450	4.397973488383577e-09
	-1.475212255655500e-05

 451	4.407973488383577e-09
	1.628861556374206e-05

 452	4.417973488383577e-09
	-1.468682957678907e-05

 453	4.427973488383577e-09
	1.622094533549473e-05

 454	4.437973488383576e-09
	-1.462180019114884e-05

 455	4.447973488383576e-09
	1.615354580775802e-05

 456	4.457973488383576e-09
	-1.455703343453130e-05

 457	4.467973488383576e-09
	1.608641602134087e-05

 458	4.477973488383575e-09
	-1.449252834807152e-05

 459	4.487973488383575e-09
	1.601955500434016e-05

 460	4.497973488383575e-09
	-1.442828398288964e-05

 461	4.507973488383575e-09
	1.595296180176287e-05

 462	4.517973488383574e-09
	-1.436429939052908e-05

 463	4.527973488383574e-09
	1.588663545992047e-05

 464	4.537973488383574e-09
	-1.430057360986281e-05

 465	4.547973488383574e-09
	1.582057501798434e-05

 466	4.557973488383573e-09
	-1.423710570532671e-05

 467	4.567973488383573e-09
	1.575477954019605e-05

 468	4.577973488383573e-09
	-1.417389474019787e-05

 469	4.587973488383573e-09
	1.568924806293059e-05

 470	4.597973488383572e-09
	-1.411093976829564e-05

 471	4.607973488383572e-09
	1.562397965460677e-05

 472	4.617973488383572e-09
	-1.404823985864251e-05

 473	4.627973488383572e-09
	1.555897337014028e-05

 474	4.637973488383572e-09
	-1.398579408637413e-05

 475	4.647973488383571e-09
	1.549422826609831e-05

 476	4.657973488383571e-09
	-1.392360151520472e-05

 477	4.667973488383571e-09
	1.542974341707526e-05

 478	4.677973488383571e-09
	-1.386166122065852e-05

 479	4.687973488383570e-09
	1.536551788915846e-05

 480	4.697973488383570e-09
	-1.379997227559521e-05

 481	4.707973488383570e-09
	1.530155074748463e-05

 482	4.717973488383570e-09
	-1.373853377752143e-05

 483	4.727973488383569e-09
	1.523784106766124e-05

 484	4.737973488383569e-09
	-1.367734479264249e-05

 485	4.747973488383569e-09
	1.517438792625336e-05

 486	4.757973488383569e-09
	-1.361640441421841e-05

 487	4.767973488383568e-09
	1.511119040489145e-05

 488	4.777973488383568e-09
	-1.355571172668990e-05

 489	4.787973488383568e-09
	1.504824757370821e-05

 490	4.797973488383568e-09
	-1.349526582375415e-05

 491	4.807973488383567e-09
	1.498555852310485e-05

 492	4.817973488383567e-09
	-1.343506580150922e-05

 493	4.827973488383567e-09
	1.492312234881166e-05

 494	4.837973488383567e-09
	-1.337511075655273e-05

 495	4.847973488383566e-09
	1.486093812577693e-05

 496	4.857973488383566e-09
	-1.331539978772361e-05

 497	4.867973488383566e-09
	1.479900495144487e-05

 498	4.877973488383566e-09
	-1.325593199449221e-05

 499	4.887973488383565e-09
	1.473732191850652e-05

 500	4.897973488383565e-09
	-1.319670648742416e-05

 501	4.907973488383565e-09
	1.467588812328197e-05

 502	4.917973488383565e-09
	-1.313772237274136e-05

 503	4.927973488383565e-09
	1.461470266986287e-05

 504	4.937973488383564e-09
	-1.307897875871961e-05

 505	4.947973488383564e-09
	1.455376465706038e-05

 506	4.957973488383564e-09
	-1.302047476371693e-05

 507	4.967973488383564e-09
	1.449307318563547e-05

 508	4.977973488383563e-09
	-1.296220949903448e-05

 509	4.987973488383563e-09
	1.443262737074735e-05

 510	4.997973488383563e-09
	-1.290418208695771e-05

 511	5.007973488383563e-09
	1.437242631494029e-05

 512	5.010000000000000e-09
	-1.196903345122846e-05

 513	5.011000000000000e-09
	-9.270261619556634e-02

 514	5.013000000000000e-09
	-2.444699616455668e-01

 515	5.017000000000000e-09
	-4.146757617071061e-01

 516	5.020000000000000e-09
	-2.507701358963981e-01

 517	5.020800000000000e-09
	1.280045627880089e-03

 518	5.022400000000000e-09
	4.671766808130987e-01

 519	5.025600000000000e-09
	1.183938953610294e+00

 520	5.031999999999999e-09
	1.708828062316068e+00

 521	5.041999999999999e-09
	1.812310630684872e+00

 522	5.051999999999999e-09
	1.797564803480953e+00

 523	5.061999999999998e-09
	1.800556207984205e+00

 524	5.071999999999998e-09
	1.799730098346805e+00

 525	5.081999999999998e-09
	1.800213275494192e+00

 526	5.091999999999998e-09
	1.799796896167983e+00

 527	5.101999999999997e-09
	1.800199617489084e+00

 528	5.111999999999997e-09
	1.799802026462330e+00

 529	5.121999999999997e-09
	1.800196526222665e+00

 530	5.131999999999997e-09
	1.799804509331039e+00

 531	5.141999999999997e-09
	1.800194396647992e+00

 532	5.151999999999996e-09
	1.799806415572530e+00

 533	5.161999999999996e-09
	1.800192668031795e+00

 534	5.171999999999996e-09
	1.799808020982886e+00

 535	5.181999999999996e-09
	1.800191163750669e+00

 536	5.191999999999995e-09
	1.799809454865927e+00

 537	5.201999999999995e-09
	1.800189788746653e+00

 538	5.211999999999995e-09
	1.799810788974154e+00

 539	5.221999999999995e-09
	1.800188489844598e+00

 540	5.231999999999994e-09
	1.799806068550584e+00

 541	5.241999999999994e-09
	1.800176576086791e+00

 542	5.251999999999994e-09
	1.799803942348874e+00

 543	5.261999999999994e-09
	1.800175798819096e+00

 544	5.271999999999993e-09
	1.799805127064342e+00

 545	5.281999999999993e-09
	1.800174662520457e+00

 546	5.291999999999993e-09
	1.799806374713581e+00

 547	5.301999999999993e-09
	1.800173528432497e+00

 548	5.311999999999992e-09
	1.799807610438404e+00

 549	5.321999999999992e-09
	1.800172405648978e+00

 550	5.331999999999992e-09
	1.799808834719925e+00

 551	5.341999999999992e-09
	1.800171292802495e+00

 552	5.351999999999991e-09
	1.799810048909550e+00

 553	5.361999999999991e-09
	1.800170188957683e+00

 554	5.371999999999991e-09
	1.799811253808149e+00

 555	5.381999999999991e-09
	1.800169093561002e+00

 556	5.391999999999990e-09
	1.799812449891757e+00

 557	5.401999999999990e-09
	1.800168006275551e+00

 558	5.411999999999990e-09
	1.799813637453962e+00

 559	5.421999999999990e-09
	1.800166926886031e+00

 560	5.431999999999990e-09
	1.799814816685825e+00

 561	5.441999999999989e-09
	1.800165855245474e+00

 562	5.451999999999989e-09
	1.799815987720983e+00

 563	5.461999999999989e-09
	1.800164791245439e+00

 564	5.471999999999989e-09
	1.799817150660479e+00

 565	5.481999999999988e-09
	1.800163734799241e+00

 566	5.491999999999988e-09
	1.799818305587071e+00

 567	5.501999999999988e-09
	1.800162685832631e+00

 568	5.511999999999988e-09
	1.799819452572995e+00

 569	5.521999999999987e-09
	1.800161644278530e+00

 570	5.531999999999987e-09
	1.799820591684334e+00

 571	5.541999999999987e-09
	1.800160610074128e+00

 572	5.551999999999987e-09
	1.799821722983610e+00

 573	5.561999999999986e-09
	1.800159583159167e+00

 574	5.571999999999986e-09
	1.799822846531145e+00

 575	5.581999999999986e-09
	1.800158563475178e+00

 576	5.591999999999986e-09
	1.799823962385736e+00

 577	5.601999999999985e-09
	1.800157550964707e+00

 578	5.611999999999985e-09
	1.799825070605221e+00

 579	5.621999999999985e-09
	1.800156545571264e+00

 580	5.631999999999985e-09
	1.799826171246647e+00
